phonopy:
  version: "2.38.0"
  frequency_unit_conversion_factor: 15.633302
  symmetry_tolerance: 1.00000e-05
  configuration:
    create_displacements: ".true."
    dim: "1 1 1"

physical_unit:
  atomic_mass: "AMU"
  length: "angstrom"

space_group:
  type: "P1"
  number: 1
  Hall_symbol: "P 1"

supercell_matrix:
- [   1,   0,   0 ]
- [   0,   1,   0 ]
- [   0,   0,   1 ]

primitive_cell:
  lattice:
  - [    -7.104316435087000,    -7.112716537539848,    -0.002824466797880 ] # a
  - [    -7.103552104922708,     7.111923818249048,    -0.001176964496790 ] # b
  - [    -0.005165426369212,    -0.002028075801448,   -17.742782674966588 ] # c
  points:
  - symbol: Mn # 1
    coordinates: [  0.751316206380864,  0.752395234558500,  0.999277582121238 ]
    mass: 54.938045
  - symbol: Mn # 2
    coordinates: [  0.498785007885516,  0.000697518765682,  0.000141551339122 ]
    mass: 54.938045
  - symbol: Mn # 3
    coordinates: [  0.494021107219049,  0.000612402979633,  0.398867098559671 ]
    mass: 54.938045
  - symbol: Mn # 4
    coordinates: [  0.247348258292171,  0.749882681503418,  0.598852382508989 ]
    mass: 54.938045
  - symbol: Mn # 5
    coordinates: [  0.247768255569563,  0.743574798189546,  0.803772419801749 ]
    mass: 54.938045
  - symbol: Mn # 6
    coordinates: [  0.745836261785971,  0.252085727108916,  0.798772420175737 ]
    mass: 54.938045
  - symbol: Mn # 7
    coordinates: [  0.626084313387025,  0.384886562298622,  0.299363296764766 ]
    mass: 54.938045
  - symbol: Mn # 8
    coordinates: [  0.873377060592081,  0.629527076121297,  0.299804812457072 ]
    mass: 54.938045
  - symbol: Mn # 9
    coordinates: [  0.868051266518674,  0.125412542812524,  0.504252036880303 ]
    mass: 54.938045
  - symbol: Mn # 10
    coordinates: [  0.131181165247143,  0.374219573838727,  0.703845796371468 ]
    mass: 54.938045
  - symbol: Mn # 11
    coordinates: [  0.123363998138336,  0.373640048859561,  0.896733690096019 ]
    mass: 54.938045
  - symbol: Mn # 12
    coordinates: [  0.121862850122353,  0.127726143369889,  0.102271594974896 ]
    mass: 54.938045
  - symbol: Mn # 13
    coordinates: [  0.624921787945864,  0.128254957829888,  0.103806687873304 ]
    mass: 54.938045
  - symbol: Mn # 14
    coordinates: [  0.375469718697638,  0.875678583840982,  0.301301473396559 ]
    mass: 54.938045
  - symbol: Mn # 15
    coordinates: [  0.373144123374306,  0.370580936330239,  0.298409427366361 ]
    mass: 54.938045
  - symbol: Mn # 16
    coordinates: [  0.627015119997731,  0.126332464090094,  0.300569952372896 ]
    mass: 54.938045
  - symbol: Mn # 17
    coordinates: [  0.872737407263723,  0.375672516831412,  0.298701471979365 ]
    mass: 54.938045
  - symbol: Mn # 18
    coordinates: [  0.372436608858418,  0.876097182987779,  0.498115745208902 ]
    mass: 54.938045
  - symbol: Mn # 19
    coordinates: [  0.621748809716968,  0.626168505176130,  0.497805382055223 ]
    mass: 54.938045
  - symbol: Mn # 20
    coordinates: [  0.119717384260664,  0.124830814593688,  0.698515217172558 ]
    mass: 54.938045
  - symbol: Mn # 21
    coordinates: [  0.624094373857130,  0.130005094597435,  0.900700154859562 ]
    mass: 54.938045
  - symbol: Mn # 22
    coordinates: [  0.008260111710993,  0.750554868063296,  0.995990246181551 ]
    mass: 54.938045
  - symbol: Mn # 23
    coordinates: [  0.250024520333322,  0.000608166903998,  0.198749146004281 ]
    mass: 54.938045
  - symbol: Mn # 24
    coordinates: [  0.496897166242988,  0.249028999802296,  0.201449278022494 ]
    mass: 54.938045
  - symbol: Mn # 25
    coordinates: [  0.001414133027098,  0.247985055137421,  0.203076850357267 ]
    mass: 54.938045
  - symbol: Mn # 26
    coordinates: [  0.244977060522844,  0.001181237555928,  0.401653227085111 ]
    mass: 54.938045
  - symbol: Mn # 27
    coordinates: [  0.254457180230420,  0.508823634709534,  0.597969585949156 ]
    mass: 54.938045
  - symbol: Mn # 28
    coordinates: [  0.497623160418070,  0.744365696169800,  0.602190870798445 ]
    mass: 54.938045
  - symbol: Mn # 29
    coordinates: [  0.753637600952733,  0.501505333123752,  0.601427510237276 ]
    mass: 54.938045
  - symbol: Mn # 30
    coordinates: [  0.999607451813033,  0.254561634409497,  0.603299196665334 ]
    mass: 54.938045
  - symbol: Mn # 31
    coordinates: [  0.246512279938903,  0.000625126589545,  0.800479573289688 ]
    mass: 54.938045
  - symbol: Mn # 32
    coordinates: [  0.748806806914436,  0.506935493740597,  0.798900218234802 ]
    mass: 54.938045
  - symbol: Cr # 33
    coordinates: [  0.999272172097996,  0.003847901562872,  0.001011992669293 ]
    mass: 51.996100
  - symbol: Cr # 34
    coordinates: [  0.003705652614438,  0.998398989593682,  0.194327672427920 ]
    mass: 51.996100
  - symbol: Cr # 35
    coordinates: [  0.495011813588921,  0.495979458124617,  0.199348368923655 ]
    mass: 51.996100
  - symbol: Cr # 36
    coordinates: [  0.502977647878105,  0.992362981470858,  0.201317649353124 ]
    mass: 51.996100
  - symbol: Cr # 37
    coordinates: [  0.496509989704158,  0.498220524426551,  0.400685290116434 ]
    mass: 51.996100
  - symbol: Cr # 38
    coordinates: [  0.008919904919749,  0.493918715476710,  0.601237001550617 ]
    mass: 51.996100
  - symbol: Cr # 39
    coordinates: [  0.748546488987679,  0.257066638497585,  0.601475288681412 ]
    mass: 51.996100
  - symbol: Cr # 40
    coordinates: [  0.993999886996880,  0.498965110313667,  0.792900044639172 ]
    mass: 51.996100
  - symbol: Cr # 41
    coordinates: [  0.505566700071496,  0.504541395326778,  0.796423480420705 ]
    mass: 51.996100
  - symbol: Cr # 42
    coordinates: [  0.746419591906956,  0.749855419087409,  0.802471480492308 ]
    mass: 51.996100
  - symbol: Cr # 43
    coordinates: [  0.126585134003255,  0.382131064110618,  0.102949567373025 ]
    mass: 51.996100
  - symbol: Cr # 44
    coordinates: [  0.628975967369246,  0.376590292191210,  0.097901407742051 ]
    mass: 51.996100
  - symbol: Cr # 45
    coordinates: [  0.120550035044892,  0.886894928024956,  0.302399858363826 ]
    mass: 51.996100
  - symbol: Cr # 46
    coordinates: [  0.879671218625657,  0.127546945041067,  0.298510988092539 ]
    mass: 51.996100
  - symbol: Cr # 47
    coordinates: [  0.625342402339752,  0.372227788139577,  0.498004032790487 ]
    mass: 51.996100
  - symbol: Cr # 48
    coordinates: [  0.872512301367307,  0.624303932781311,  0.497287761439112 ]
    mass: 51.996100
  - symbol: Cr # 49
    coordinates: [  0.870091789455160,  0.630766906248509,  0.696364156888037 ]
    mass: 51.996100
  - symbol: Cr # 50
    coordinates: [  0.129299737450109,  0.875051566041861,  0.895921188568635 ]
    mass: 51.996100
  - symbol: Cr # 51
    coordinates: [  0.628321473542781,  0.631998421676934,  0.100240209085801 ]
    mass: 51.996100
  - symbol: Cr # 52
    coordinates: [  0.864066462010923,  0.864310528177310,  0.098725609560729 ]
    mass: 51.996100
  - symbol: Cr # 53
    coordinates: [  0.123842729029369,  0.622006519727437,  0.299473102722249 ]
    mass: 51.996100
  - symbol: Cr # 54
    coordinates: [  0.134760364937577,  0.129601855921065,  0.300090505366736 ]
    mass: 51.996100
  - symbol: Cr # 55
    coordinates: [  0.630969654735512,  0.628362153158705,  0.301361193723793 ]
    mass: 51.996100
  - symbol: Cr # 56
    coordinates: [  0.123181435865236,  0.121432652786367,  0.497820779579674 ]
    mass: 51.996100
  - symbol: Cr # 57
    coordinates: [  0.132800268001245,  0.630880790551602,  0.706555778318947 ]
    mass: 51.996100
  - symbol: Cr # 58
    coordinates: [  0.874243077792167,  0.369081982738996,  0.706009744002632 ]
    mass: 51.996100
  - symbol: Cr # 59
    coordinates: [  0.128227352867640,  0.616258648953209,  0.898029122551878 ]
    mass: 51.996100
  - symbol: Cr # 60
    coordinates: [  0.373449534599516,  0.370557239328945,  0.904335726329660 ]
    mass: 51.996100
  - symbol: Cr # 61
    coordinates: [  0.997086328201992,  0.254392437127203,  0.997930906656690 ]
    mass: 51.996100
  - symbol: Cr # 62
    coordinates: [  0.751709143263826,  0.995620949276453,  0.403524184661654 ]
    mass: 51.996100
  - symbol: Cr # 63
    coordinates: [  0.000930936900890,  0.748552593728785,  0.602546986642094 ]
    mass: 51.996100
  - symbol: Cr # 64
    coordinates: [  0.748152823630231,  0.000120292349334,  0.599166069336365 ]
    mass: 51.996100
  - symbol: Fe # 65
    coordinates: [  0.253280879709905,  0.244877883398325,  0.001418980256643 ]
    mass: 55.845000
  - symbol: Fe # 66
    coordinates: [  0.750488194343269,  0.253555063582043,  0.997675389974530 ]
    mass: 55.845000
  - symbol: Fe # 67
    coordinates: [  0.246230055732430,  0.750509979939061,  0.199213876632600 ]
    mass: 55.845000
  - symbol: Fe # 68
    coordinates: [  0.992532683171679,  0.002814855191837,  0.401684391237500 ]
    mass: 55.845000
  - symbol: Fe # 69
    coordinates: [  0.254558269809026,  0.247498983875569,  0.403024161118301 ]
    mass: 55.845000
  - symbol: Fe # 70
    coordinates: [  0.253122861269272,  0.248623785044303,  0.597948519466184 ]
    mass: 55.845000
  - symbol: Fe # 71
    coordinates: [  0.502509046298952,  0.003596131432832,  0.799818509616710 ]
    mass: 55.845000
  - symbol: Fe # 72
    coordinates: [  0.375372596758321,  0.621419861011996,  0.100656609496941 ]
    mass: 55.845000
  - symbol: Fe # 73
    coordinates: [  0.372430172464190,  0.125292763679115,  0.103001922299603 ]
    mass: 55.845000
  - symbol: Fe # 74
    coordinates: [  0.876496223234292,  0.618616349902331,  0.102812047904970 ]
    mass: 55.845000
  - symbol: Fe # 75
    coordinates: [  0.878489698048249,  0.121321148909531,  0.099539089774291 ]
    mass: 55.845000
  - symbol: Fe # 76
    coordinates: [  0.371738718632820,  0.122552147623301,  0.298744586371170 ]
    mass: 55.845000
  - symbol: Fe # 77
    coordinates: [  0.629514975152347,  0.872598530584590,  0.300819937228725 ]
    mass: 55.845000
  - symbol: Fe # 78
    coordinates: [  0.122117473703533,  0.871944080158951,  0.700860498855477 ]
    mass: 55.845000
  - symbol: Fe # 79
    coordinates: [  0.872873194279901,  0.123066207827742,  0.699698263030264 ]
    mass: 55.845000
  - symbol: Fe # 80
    coordinates: [  0.619424854852431,  0.379124482061693,  0.900348192476066 ]
    mass: 55.845000
  - symbol: Fe # 81
    coordinates: [  0.879074986774882,  0.125678591864805,  0.899959189125283 ]
    mass: 55.845000
  - symbol: Fe # 82
    coordinates: [  0.878050855544803,  0.370576131385204,  0.101324422955665 ]
    mass: 55.845000
  - symbol: Fe # 83
    coordinates: [  0.877501496817474,  0.880781563974381,  0.298325354046689 ]
    mass: 55.845000
  - symbol: Fe # 84
    coordinates: [  0.370148625865325,  0.874723066861787,  0.699421940024452 ]
    mass: 55.845000
  - symbol: Fe # 85
    coordinates: [  0.874011034060868,  0.877366894481325,  0.701543909460837 ]
    mass: 55.845000
  - symbol: Fe # 86
    coordinates: [  0.623379853179772,  0.622238925913119,  0.899946276219061 ]
    mass: 55.845000
  - symbol: Fe # 87
    coordinates: [  0.250150936437643,  0.501513504589659,  0.001626444407106 ]
    mass: 55.845000
  - symbol: Fe # 88
    coordinates: [  0.495437656366404,  0.743333060600775,  0.998721880292682 ]
    mass: 55.845000
  - symbol: Fe # 89
    coordinates: [  0.245301277944360,  0.993641078440524,  0.998649801579862 ]
    mass: 55.845000
  - symbol: Fe # 90
    coordinates: [  0.245255726208573,  0.497946643658948,  0.199061597691058 ]
    mass: 55.845000
  - symbol: Fe # 91
    coordinates: [  0.246974672751688,  0.500106616317142,  0.401505548688287 ]
    mass: 55.845000
  - symbol: Fe # 92
    coordinates: [  0.752502827671210,  0.499593152624272,  0.403838655765252 ]
    mass: 55.845000
  - symbol: Fe # 93
    coordinates: [  0.002918904980256,  0.753311108445350,  0.401402642899296 ]
    mass: 55.845000
  - symbol: Fe # 94
    coordinates: [  0.003174408233267,  0.250467192990284,  0.400605424087455 ]
    mass: 55.845000
  - symbol: Fe # 95
    coordinates: [  0.499688195630756,  0.747064859689419,  0.799392329897547 ]
    mass: 55.845000
  - symbol: Fe # 96
    coordinates: [  0.996116776555609,  0.752377541678307,  0.801435998149841 ]
    mass: 55.845000
  - symbol: Co # 97
    coordinates: [  0.252260292233321,  0.747351687912485,  0.998050688456797 ]
    mass: 58.933195
  - symbol: Co # 98
    coordinates: [  0.502875904131468,  0.497398346556367,  0.002794371420235 ]
    mass: 58.933195
  - symbol: Co # 99
    coordinates: [  0.996175807911739,  0.497294523174385,  0.201748262283209 ]
    mass: 58.933195
  - symbol: Co # 100
    coordinates: [  0.249041621865609,  0.249146299808406,  0.198077439385194 ]
    mass: 58.933195
  - symbol: Co # 101
    coordinates: [  0.748998848891850,  0.750517651692444,  0.199278485340360 ]
    mass: 58.933195
  - symbol: Co # 102
    coordinates: [  0.751021357662204,  0.752749231757285,  0.401950841020409 ]
    mass: 58.933195
  - symbol: Co # 103
    coordinates: [  0.504602309413145,  0.495895975316739,  0.598044520706389 ]
    mass: 58.933195
  - symbol: Co # 104
    coordinates: [  0.621318082052308,  0.875546028235105,  0.100524016249277 ]
    mass: 58.933195
  - symbol: Co # 105
    coordinates: [  0.124749621212537,  0.375234644424797,  0.299646242738515 ]
    mass: 58.933195
  - symbol: Co # 106
    coordinates: [  0.374407980828800,  0.625104014573802,  0.498186816299874 ]
    mass: 58.933195
  - symbol: Co # 107
    coordinates: [  0.125507447369677,  0.874643570479668,  0.498185915000102 ]
    mass: 58.933195
  - symbol: Co # 108
    coordinates: [  0.377596806756713,  0.128402037174529,  0.499864484009408 ]
    mass: 58.933195
  - symbol: Co # 109
    coordinates: [  0.375758017279793,  0.623792546768161,  0.699485339157595 ]
    mass: 58.933195
  - symbol: Co # 110
    coordinates: [  0.375943762620589,  0.126288491392182,  0.698494113740206 ]
    mass: 58.933195
  - symbol: Co # 111
    coordinates: [  0.625313918546714,  0.373416041586516,  0.699974808505390 ]
    mass: 58.933195
  - symbol: Co # 112
    coordinates: [  0.377774050104882,  0.622672355179740,  0.900263243131362 ]
    mass: 58.933195
  - symbol: Co # 113
    coordinates: [  0.378739587334359,  0.125394957621769,  0.900929367119313 ]
    mass: 58.933195
  - symbol: Co # 114
    coordinates: [  0.876222273292760,  0.623767048802762,  0.898620254922977 ]
    mass: 58.933195
  - symbol: Co # 115
    coordinates: [  0.124762061149784,  0.624144235204156,  0.100851955017541 ]
    mass: 58.933195
  - symbol: Co # 116
    coordinates: [  0.378785243606474,  0.370681838995349,  0.099929924505176 ]
    mass: 58.933195
  - symbol: Co # 117
    coordinates: [  0.123713510564077,  0.624686465518049,  0.499788739909856 ]
    mass: 58.933195
  - symbol: Co # 118
    coordinates: [  0.379065342932507,  0.375930570661310,  0.500266435357088 ]
    mass: 58.933195
  - symbol: Co # 119
    coordinates: [  0.623395485142701,  0.125991679229805,  0.498318310747662 ]
    mass: 58.933195
  - symbol: Co # 120
    coordinates: [  0.376810789888751,  0.375510123011359,  0.697594030380490 ]
    mass: 58.933195
  - symbol: Co # 121
    coordinates: [  0.626249501891203,  0.626606312051979,  0.698149130155645 ]
    mass: 58.933195
  - symbol: Co # 122
    coordinates: [  0.627432564896954,  0.126042710761964,  0.698670781530560 ]
    mass: 58.933195
  - symbol: Co # 123
    coordinates: [  0.500391290638068,  0.251219338642920,  0.001353536247234 ]
    mass: 58.933195
  - symbol: Co # 124
    coordinates: [  0.751473048734971,  0.502016580043390,  0.998927536306762 ]
    mass: 58.933195
  - symbol: Co # 125
    coordinates: [  0.746946735291716,  0.499595059245159,  0.199592582114984 ]
    mass: 58.933195
  - symbol: Co # 126
    coordinates: [  0.502170751346067,  0.746160554933708,  0.399501656729185 ]
    mass: 58.933195
  - symbol: Co # 127
    coordinates: [  0.747839702058439,  0.002163126580519,  0.800969774092822 ]
    mass: 58.933195
  - symbol: Co # 128
    coordinates: [  0.001283999297373,  0.246180610862487,  0.799072469432749 ]
    mass: 58.933195
  - symbol: Ni # 129
    coordinates: [  0.997954635607153,  0.499208924136685,  0.000374421958586 ]
    mass: 58.693400
  - symbol: Ni # 130
    coordinates: [  0.749751440401130,  0.252702804542011,  0.200049895229898 ]
    mass: 58.693400
  - symbol: Ni # 131
    coordinates: [  0.998988218783368,  0.498283704229572,  0.399865190636876 ]
    mass: 58.693400
  - symbol: Ni # 132
    coordinates: [  0.249717861509257,  0.749770328683075,  0.399996314524862 ]
    mass: 58.693400
  - symbol: Ni # 133
    coordinates: [  0.751270931567426,  0.250289742639048,  0.400595222938261 ]
    mass: 58.693400
  - symbol: Ni # 134
    coordinates: [  0.001134640999767,  0.997797340510142,  0.600321719328029 ]
    mass: 58.693400
  - symbol: Ni # 135
    coordinates: [  0.749156577038533,  0.752846394879074,  0.598224395228226 ]
    mass: 58.693400
  - symbol: Ni # 136
    coordinates: [  0.499560819765950,  0.998996117408550,  0.599207221930396 ]
    mass: 58.693400
  - symbol: Ni # 137
    coordinates: [  0.999135138301519,  0.001279742897982,  0.799693083803317 ]
    mass: 58.693400
  - symbol: Ni # 138
    coordinates: [  0.253170390634150,  0.247423225204484,  0.799238032400312 ]
    mass: 58.693400
  - symbol: Ni # 139
    coordinates: [  0.122830942996919,  0.872437423114998,  0.098811758302404 ]
    mass: 58.693400
  - symbol: Ni # 140
    coordinates: [  0.376666534127457,  0.624286049084605,  0.300141324493751 ]
    mass: 58.693400
  - symbol: Ni # 141
    coordinates: [  0.127278377328169,  0.375104027185213,  0.500478875842362 ]
    mass: 58.693400
  - symbol: Ni # 142
    coordinates: [  0.622184147528778,  0.874597408005452,  0.499293747158701 ]
    mass: 58.693400
  - symbol: Ni # 143
    coordinates: [  0.623866393785422,  0.875990262440303,  0.700028562058549 ]
    mass: 58.693400
  - symbol: Ni # 144
    coordinates: [  0.624824620326663,  0.876035482388500,  0.900148036793946 ]
    mass: 58.693400
  - symbol: Ni # 145
    coordinates: [  0.373045311658425,  0.874619686172359,  0.099594488041633 ]
    mass: 58.693400
  - symbol: Ni # 146
    coordinates: [  0.876900707122748,  0.873520215599643,  0.501393251063577 ]
    mass: 58.693400
  - symbol: Ni # 147
    coordinates: [  0.878037133814811,  0.375389616352571,  0.500889232385021 ]
    mass: 58.693400
  - symbol: Ni # 148
    coordinates: [  0.379049964231031,  0.873492359546020,  0.899547678024064 ]
    mass: 58.693400
  - symbol: Ni # 149
    coordinates: [  0.125843420966559,  0.123677976098081,  0.900895954596677 ]
    mass: 58.693400
  - symbol: Ni # 150
    coordinates: [  0.875171718939133,  0.876990217843411,  0.900076914112618 ]
    mass: 58.693400
  - symbol: Ni # 151
    coordinates: [  0.871479309233680,  0.378466199065381,  0.897657974741239 ]
    mass: 58.693400
  - symbol: Ni # 152
    coordinates: [  0.749978190929899,  0.002040529118406,  0.000109388313923 ]
    mass: 58.693400
  - symbol: Ni # 153
    coordinates: [  0.499451310161926,  0.746687281543752,  0.200250902411568 ]
    mass: 58.693400
  - symbol: Ni # 154
    coordinates: [  0.997677267252026,  0.750041737529026,  0.199391301074537 ]
    mass: 58.693400
  - symbol: Ni # 155
    coordinates: [  0.752226890603381,  0.999717535682512,  0.199260677299777 ]
    mass: 58.693400
  - symbol: Ni # 156
    coordinates: [  0.501425418365579,  0.250023455058199,  0.398410738004456 ]
    mass: 58.693400
  - symbol: Ni # 157
    coordinates: [  0.247757516200175,  0.000631703765923,  0.600525656953319 ]
    mass: 58.693400
  - symbol: Ni # 158
    coordinates: [  0.501288544414217,  0.251064098344037,  0.599969336185355 ]
    mass: 58.693400
  - symbol: Ni # 159
    coordinates: [  0.257333946008380,  0.497229830389464,  0.799483553288389 ]
    mass: 58.693400
  - symbol: Ni # 160
    coordinates: [  0.498147252948684,  0.253377499751909,  0.799529641598258 ]
    mass: 58.693400
  reciprocal_lattice: # without 2pi
  - [    -0.070379619977421,    -0.070296768755992,     0.000028524720716 ] # a*
  - [    -0.070387460203572,     0.070304327823040,     0.000012455697680 ] # b*
  - [     0.000015872845129,     0.000006526890040,    -0.056360950452149 ] # c*

unit_cell:
  lattice:
  - [    -7.104316435087000,    -7.112716537539848,    -0.002824466797880 ] # a
  - [    -7.103552104922708,     7.111923818249048,    -0.001176964496790 ] # b
  - [    -0.005165426369212,    -0.002028075801448,   -17.742782674966588 ] # c
  points:
  - symbol: Mn # 1
    coordinates: [  0.751316206380864,  0.752395234558500,  0.999277582121238 ]
    mass: 54.938045
    reduced_to: 1
  - symbol: Mn # 2
    coordinates: [  0.498785007885516,  0.000697518765682,  0.000141551339122 ]
    mass: 54.938045
    reduced_to: 2
  - symbol: Mn # 3
    coordinates: [  0.494021107219049,  0.000612402979633,  0.398867098559671 ]
    mass: 54.938045
    reduced_to: 3
  - symbol: Mn # 4
    coordinates: [  0.247348258292171,  0.749882681503418,  0.598852382508989 ]
    mass: 54.938045
    reduced_to: 4
  - symbol: Mn # 5
    coordinates: [  0.247768255569563,  0.743574798189546,  0.803772419801749 ]
    mass: 54.938045
    reduced_to: 5
  - symbol: Mn # 6
    coordinates: [  0.745836261785971,  0.252085727108916,  0.798772420175737 ]
    mass: 54.938045
    reduced_to: 6
  - symbol: Mn # 7
    coordinates: [  0.626084313387025,  0.384886562298622,  0.299363296764766 ]
    mass: 54.938045
    reduced_to: 7
  - symbol: Mn # 8
    coordinates: [  0.873377060592081,  0.629527076121297,  0.299804812457072 ]
    mass: 54.938045
    reduced_to: 8
  - symbol: Mn # 9
    coordinates: [  0.868051266518674,  0.125412542812524,  0.504252036880303 ]
    mass: 54.938045
    reduced_to: 9
  - symbol: Mn # 10
    coordinates: [  0.131181165247143,  0.374219573838727,  0.703845796371468 ]
    mass: 54.938045
    reduced_to: 10
  - symbol: Mn # 11
    coordinates: [  0.123363998138336,  0.373640048859561,  0.896733690096019 ]
    mass: 54.938045
    reduced_to: 11
  - symbol: Mn # 12
    coordinates: [  0.121862850122353,  0.127726143369889,  0.102271594974896 ]
    mass: 54.938045
    reduced_to: 12
  - symbol: Mn # 13
    coordinates: [  0.624921787945864,  0.128254957829888,  0.103806687873304 ]
    mass: 54.938045
    reduced_to: 13
  - symbol: Mn # 14
    coordinates: [  0.375469718697638,  0.875678583840982,  0.301301473396559 ]
    mass: 54.938045
    reduced_to: 14
  - symbol: Mn # 15
    coordinates: [  0.373144123374306,  0.370580936330239,  0.298409427366361 ]
    mass: 54.938045
    reduced_to: 15
  - symbol: Mn # 16
    coordinates: [  0.627015119997731,  0.126332464090094,  0.300569952372896 ]
    mass: 54.938045
    reduced_to: 16
  - symbol: Mn # 17
    coordinates: [  0.872737407263723,  0.375672516831412,  0.298701471979365 ]
    mass: 54.938045
    reduced_to: 17
  - symbol: Mn # 18
    coordinates: [  0.372436608858418,  0.876097182987779,  0.498115745208902 ]
    mass: 54.938045
    reduced_to: 18
  - symbol: Mn # 19
    coordinates: [  0.621748809716968,  0.626168505176130,  0.497805382055223 ]
    mass: 54.938045
    reduced_to: 19
  - symbol: Mn # 20
    coordinates: [  0.119717384260664,  0.124830814593688,  0.698515217172558 ]
    mass: 54.938045
    reduced_to: 20
  - symbol: Mn # 21
    coordinates: [  0.624094373857130,  0.130005094597435,  0.900700154859562 ]
    mass: 54.938045
    reduced_to: 21
  - symbol: Mn # 22
    coordinates: [  0.008260111710993,  0.750554868063296,  0.995990246181551 ]
    mass: 54.938045
    reduced_to: 22
  - symbol: Mn # 23
    coordinates: [  0.250024520333322,  0.000608166903998,  0.198749146004281 ]
    mass: 54.938045
    reduced_to: 23
  - symbol: Mn # 24
    coordinates: [  0.496897166242988,  0.249028999802296,  0.201449278022494 ]
    mass: 54.938045
    reduced_to: 24
  - symbol: Mn # 25
    coordinates: [  0.001414133027098,  0.247985055137421,  0.203076850357267 ]
    mass: 54.938045
    reduced_to: 25
  - symbol: Mn # 26
    coordinates: [  0.244977060522844,  0.001181237555928,  0.401653227085111 ]
    mass: 54.938045
    reduced_to: 26
  - symbol: Mn # 27
    coordinates: [  0.254457180230420,  0.508823634709534,  0.597969585949156 ]
    mass: 54.938045
    reduced_to: 27
  - symbol: Mn # 28
    coordinates: [  0.497623160418070,  0.744365696169800,  0.602190870798445 ]
    mass: 54.938045
    reduced_to: 28
  - symbol: Mn # 29
    coordinates: [  0.753637600952733,  0.501505333123752,  0.601427510237276 ]
    mass: 54.938045
    reduced_to: 29
  - symbol: Mn # 30
    coordinates: [  0.999607451813033,  0.254561634409497,  0.603299196665334 ]
    mass: 54.938045
    reduced_to: 30
  - symbol: Mn # 31
    coordinates: [  0.246512279938903,  0.000625126589545,  0.800479573289688 ]
    mass: 54.938045
    reduced_to: 31
  - symbol: Mn # 32
    coordinates: [  0.748806806914436,  0.506935493740597,  0.798900218234802 ]
    mass: 54.938045
    reduced_to: 32
  - symbol: Cr # 33
    coordinates: [ -0.000727827902004,  0.003847901562872,  0.001011992669293 ]
    mass: 51.996100
    reduced_to: 33
  - symbol: Cr # 34
    coordinates: [  0.003705652614438, -0.001601010406318,  0.194327672427920 ]
    mass: 51.996100
    reduced_to: 34
  - symbol: Cr # 35
    coordinates: [  0.495011813588921,  0.495979458124617,  0.199348368923655 ]
    mass: 51.996100
    reduced_to: 35
  - symbol: Cr # 36
    coordinates: [  0.502977647878105,  0.992362981470858,  0.201317649353124 ]
    mass: 51.996100
    reduced_to: 36
  - symbol: Cr # 37
    coordinates: [  0.496509989704158,  0.498220524426551,  0.400685290116434 ]
    mass: 51.996100
    reduced_to: 37
  - symbol: Cr # 38
    coordinates: [  0.008919904919749,  0.493918715476710,  0.601237001550617 ]
    mass: 51.996100
    reduced_to: 38
  - symbol: Cr # 39
    coordinates: [  0.748546488987679,  0.257066638497585,  0.601475288681412 ]
    mass: 51.996100
    reduced_to: 39
  - symbol: Cr # 40
    coordinates: [  0.993999886996880,  0.498965110313667,  0.792900044639172 ]
    mass: 51.996100
    reduced_to: 40
  - symbol: Cr # 41
    coordinates: [  0.505566700071496,  0.504541395326778,  0.796423480420705 ]
    mass: 51.996100
    reduced_to: 41
  - symbol: Cr # 42
    coordinates: [  0.746419591906956,  0.749855419087409,  0.802471480492308 ]
    mass: 51.996100
    reduced_to: 42
  - symbol: Cr # 43
    coordinates: [  0.126585134003255,  0.382131064110618,  0.102949567373025 ]
    mass: 51.996100
    reduced_to: 43
  - symbol: Cr # 44
    coordinates: [  0.628975967369246,  0.376590292191210,  0.097901407742051 ]
    mass: 51.996100
    reduced_to: 44
  - symbol: Cr # 45
    coordinates: [  0.120550035044892,  0.886894928024956,  0.302399858363826 ]
    mass: 51.996100
    reduced_to: 45
  - symbol: Cr # 46
    coordinates: [  0.879671218625657,  0.127546945041067,  0.298510988092539 ]
    mass: 51.996100
    reduced_to: 46
  - symbol: Cr # 47
    coordinates: [  0.625342402339752,  0.372227788139577,  0.498004032790487 ]
    mass: 51.996100
    reduced_to: 47
  - symbol: Cr # 48
    coordinates: [  0.872512301367307,  0.624303932781311,  0.497287761439112 ]
    mass: 51.996100
    reduced_to: 48
  - symbol: Cr # 49
    coordinates: [  0.870091789455160,  0.630766906248509,  0.696364156888037 ]
    mass: 51.996100
    reduced_to: 49
  - symbol: Cr # 50
    coordinates: [  0.129299737450109,  0.875051566041861,  0.895921188568635 ]
    mass: 51.996100
    reduced_to: 50
  - symbol: Cr # 51
    coordinates: [  0.628321473542781,  0.631998421676934,  0.100240209085801 ]
    mass: 51.996100
    reduced_to: 51
  - symbol: Cr # 52
    coordinates: [  0.864066462010923,  0.864310528177310,  0.098725609560729 ]
    mass: 51.996100
    reduced_to: 52
  - symbol: Cr # 53
    coordinates: [  0.123842729029369,  0.622006519727437,  0.299473102722249 ]
    mass: 51.996100
    reduced_to: 53
  - symbol: Cr # 54
    coordinates: [  0.134760364937577,  0.129601855921065,  0.300090505366736 ]
    mass: 51.996100
    reduced_to: 54
  - symbol: Cr # 55
    coordinates: [  0.630969654735512,  0.628362153158705,  0.301361193723793 ]
    mass: 51.996100
    reduced_to: 55
  - symbol: Cr # 56
    coordinates: [  0.123181435865236,  0.121432652786367,  0.497820779579674 ]
    mass: 51.996100
    reduced_to: 56
  - symbol: Cr # 57
    coordinates: [  0.132800268001245,  0.630880790551602,  0.706555778318947 ]
    mass: 51.996100
    reduced_to: 57
  - symbol: Cr # 58
    coordinates: [  0.874243077792167,  0.369081982738996,  0.706009744002632 ]
    mass: 51.996100
    reduced_to: 58
  - symbol: Cr # 59
    coordinates: [  0.128227352867640,  0.616258648953209,  0.898029122551878 ]
    mass: 51.996100
    reduced_to: 59
  - symbol: Cr # 60
    coordinates: [  0.373449534599516,  0.370557239328945,  0.904335726329660 ]
    mass: 51.996100
    reduced_to: 60
  - symbol: Cr # 61
    coordinates: [  0.997086328201992,  0.254392437127203, -0.002069093343310 ]
    mass: 51.996100
    reduced_to: 61
  - symbol: Cr # 62
    coordinates: [  0.751709143263826,  0.995620949276453,  0.403524184661654 ]
    mass: 51.996100
    reduced_to: 62
  - symbol: Cr # 63
    coordinates: [  0.000930936900890,  0.748552593728785,  0.602546986642094 ]
    mass: 51.996100
    reduced_to: 63
  - symbol: Cr # 64
    coordinates: [  0.748152823630231,  0.000120292349334,  0.599166069336365 ]
    mass: 51.996100
    reduced_to: 64
  - symbol: Fe # 65
    coordinates: [  0.253280879709905,  0.244877883398325,  0.001418980256643 ]
    mass: 55.845000
    reduced_to: 65
  - symbol: Fe # 66
    coordinates: [  0.750488194343269,  0.253555063582043,  0.997675389974530 ]
    mass: 55.845000
    reduced_to: 66
  - symbol: Fe # 67
    coordinates: [  0.246230055732430,  0.750509979939061,  0.199213876632600 ]
    mass: 55.845000
    reduced_to: 67
  - symbol: Fe # 68
    coordinates: [  0.992532683171679,  0.002814855191837,  0.401684391237500 ]
    mass: 55.845000
    reduced_to: 68
  - symbol: Fe # 69
    coordinates: [  0.254558269809026,  0.247498983875569,  0.403024161118301 ]